file 3506 1680987750                                            
version 2
run General-0-20220106-22:01:42-13359
attr configname General
attr datetime 20220106-22:01:42
attr experiment General
attr inifile example1.ini
attr iterationvars ""
attr iterationvarsf ""
attr measurement ""
attr network src.dtnsim
attr processid 13359
attr repetition 0
attr replication #0
attr resultdir results
attr runnumber 0
attr seedset 0
config dtnsim.nodesNumber 7
config dtnsim.node[1..3].icon "\"satellite\""
config dtnsim.node[*].fault.enable false
config dtnsim.node[*].fault.faultSeed 0*10
config dtnsim.node[*].fault.meanTTF 20s
config dtnsim.node[*].fault.meanTTR 5s
config dtnsim.node[*].dtn.routing "\"uniboCgr\""
config dtnsim.node[*].dtn.routingType "\"routeListType:allPaths-initial+anchor,volumeAware:allContacts,extensionBlock:on,contactPlan:local\""
config dtnsim.node[*].dtn.printRoutingDebug true
config dtnsim.central.contactsFile "\"contactPlan/contactPlan.txt\""
config dtnsim.node[*].dtn.saveBundleMap true
config dtnsim.central.saveTopology true
config dtnsim.central.saveFlows true
config dtnsim.node[1].app.enable true
config dtnsim.node[1].app.returnToSender false
config dtnsim.node[1].app.bundlesNumber "\"1,1,1,1,1,1\""
config dtnsim.node[1].app.start "\"20,56,59,92,105,112\""
config dtnsim.node[1].app.destinationEid "\"7,7,7,7,7,7\""
config dtnsim.node[1].app.size "\"1000,2000,3000,4000,5000,6000\""

vector 0 dtnsim.node[1].dtn sdrBundleStored:vector ETV
attr interpolationmode none
attr source sdrBundleStored
attr title "sdrBundleStored, vector"
0	3389 8 0 0 0 0 1 0 0 0 0
vector 1 dtnsim.node[1].dtn sdrBytesStored:vector ETV
attr interpolationmode none
attr source sdrBytesStored
attr title "sdrBytesStored, vector"
1	3397 8 0 0 0 0 1 0 0 0 0
vector 2 dtnsim.node[2].dtn sdrBundleStored:vector ETV
attr interpolationmode none
attr source sdrBundleStored
attr title "sdrBundleStored, vector"
2	3405 8 0 0 0 0 1 0 0 0 0
vector 3 dtnsim.node[2].dtn sdrBytesStored:vector ETV
attr interpolationmode none
attr source sdrBytesStored
attr title "sdrBytesStored, vector"
3	3413 8 0 0 0 0 1 0 0 0 0
vector 4 dtnsim.node[3].dtn sdrBundleStored:vector ETV
attr interpolationmode none
attr source sdrBundleStored
attr title "sdrBundleStored, vector"
4	3421 8 0 0 0 0 1 0 0 0 0
vector 5 dtnsim.node[3].dtn sdrBytesStored:vector ETV
attr interpolationmode none
attr source sdrBytesStored
attr title "sdrBytesStored, vector"
5	3429 8 0 0 0 0 1 0 0 0 0
vector 6 dtnsim.node[4].dtn sdrBundleStored:vector ETV
attr interpolationmode none
attr source sdrBundleStored
attr title "sdrBundleStored, vector"
6	3437 8 0 0 0 0 1 0 0 0 0
vector 7 dtnsim.node[4].dtn sdrBytesStored:vector ETV
attr interpolationmode none
attr source sdrBytesStored
attr title "sdrBytesStored, vector"
7	3445 8 0 0 0 0 1 0 0 0 0
vector 8 dtnsim.node[5].dtn sdrBundleStored:vector ETV
attr interpolationmode none
attr source sdrBundleStored
attr title "sdrBundleStored, vector"
8	3453 8 0 0 0 0 1 0 0 0 0
vector 9 dtnsim.node[5].dtn sdrBytesStored:vector ETV
attr interpolationmode none
attr source sdrBytesStored
attr title "sdrBytesStored, vector"
9	3461 8 0 0 0 0 1 0 0 0 0
vector 10 dtnsim.node[6].dtn sdrBundleStored:vector ETV
attr interpolationmode none
attr source sdrBundleStored
attr title "sdrBundleStored, vector"
10	3469 9 0 0 0 0 1 0 0 0 0
vector 11 dtnsim.node[6].dtn sdrBytesStored:vector ETV
attr interpolationmode none
attr source sdrBytesStored
attr title "sdrBytesStored, vector"
11	3478 9 0 0 0 0 1 0 0 0 0
vector 12 dtnsim.node[7].dtn sdrBundleStored:vector ETV
attr interpolationmode none
attr source sdrBundleStored
attr title "sdrBundleStored, vector"
12	3487 9 0 0 0 0 1 0 0 0 0
vector 13 dtnsim.node[7].dtn sdrBytesStored:vector ETV
attr interpolationmode none
attr source sdrBytesStored
attr title "sdrBytesStored, vector"
13	3496 10 0 0 0 0 1 0 0 0 0
