file 455679 1705915834                                          
version 2
run General-0-20230408-20:20:50-1229
attr configname General
attr datetime 20230408-20:20:50
attr datetimef 20230408-202050
attr experiment General
attr inifile hindawi_rrn.ini
attr iterationvars $meanTTF=100
attr iterationvarsd meanTTF=100
attr iterationvarsf meanTTF=100-
attr measurement $meanTTF=100
attr network src.dtnsim
attr processid 1229
attr repetition 0
attr replication #0
attr resultdir results
attr runnumber 0
attr seedset 0
itervar meanTTF 100
config allow-object-stealing-on-deletion true
config network src.dtnsim
config repeat 10
config sim-time-limit 86400s
config dtnsim.nodesNumber 48
config dtnsim.node[48].icon "\"server2\""
config dtnsim.node[1..6].icon "\"receiverdish\""
config dtnsim.node[7..31].icon "\"antennatower\""
config dtnsim.node[32..47].icon "\"satellite\""
config dtnsim.node[32..47].fault.enable false
config dtnsim.node[32..47].fault.faultSeed (0+10)*10
config dtnsim.node[32..47].fault.meanTTF 100s
config dtnsim.node[32..47].fault.meanTTR 60*5s
config dtnsim.node[*].dtn.routing "\"cgrModelRev17\""
config dtnsim.node[*].dtn.routingType "\"routeListType:allPaths-initial+anchor,volumeAware:allContacts,extensionBlock:on,contactPlan:local\""
config dtnsim.node[*].dtn.printRoutingDebug false
config dtnsim.central.contactsFile "\"contactPlan/RingRoad_16sats_ATrack_6hotspots_simtime24hs_comrange1000km.txt\""
config dtnsim.node[48].app.enable true
config dtnsim.node[48].app.returnToSender false
config dtnsim.node[48].app.bundlesNumber "\"10,10,10,10,10,10,10,10,10,10,10,10,10,10,10,10,10,10,10,10,10,10,10,10,10\""
config dtnsim.node[48].app.start "\"1,1,1,1,1,1,1,1,1,1,1,1,1,1,1,1,1,1,1,1,1,1,1,1,1\""
config dtnsim.node[48].app.interval 3600
config dtnsim.node[48].app.destinationEid "\"7,8,9,10,11,12,13,14,15,16,17,18,19,20,21,22,23,24,25,26,27,28,29,30,31\""
config dtnsim.node[48].app.size "\"125000,125000,125000,125000,125000,125000,125000,125000,125000,125000,125000,125000,125000,125000,125000,125000,125000,125000,125000,125000,125000,125000,125000,125000,125000\""
config dtnsim.node[7..31].app.enable true
config dtnsim.node[7..31].app.returnToSender false
config dtnsim.node[7..31].app.bundlesNumber "\"10\""
config dtnsim.node[7..31].app.start "\"1\""
config dtnsim.node[7..31].app.interval 3600
config dtnsim.node[7..31].app.destinationEid "\"48\""
config dtnsim.node[7..31].app.size "\"125000\""

vector 0 dtnsim.node[1].dtn sdrBundleStored:vector ETV
attr interpolationmode none
attr recordingmode vector
attr source sdrBundleStored
attr title sdrBundleStored
0	61924 1942 0 21863 0 86400 124 0 11 239 1597
vector 1 dtnsim.node[1].dtn sdrBytesStored:vector ETV
attr interpolationmode none
attr recordingmode vector
attr source sdrBytesStored
attr title sdrBytesStored
1	63866 2325 0 21863 0 86400 124 0 1375000 29875000 24953125000000
vector 2 dtnsim.node[2].dtn sdrBundleStored:vector ETV
attr interpolationmode none
attr recordingmode vector
attr source sdrBundleStored
attr title sdrBundleStored
2	66191 876 0 21863 0 86400 52 0 9 193 1049
vector 3 dtnsim.node[2].dtn sdrBytesStored:vector ETV
attr interpolationmode none
attr recordingmode vector
attr source sdrBytesStored
attr title sdrBytesStored
3	67067 1127 0 21863 0 86400 52 0 1125000 24125000 16390625000000
vector 4 dtnsim.node[3].dtn sdrBundleStored:vector ETV
attr interpolationmode none
attr recordingmode vector
attr source sdrBundleStored
attr title sdrBundleStored
4	68194 1157 0 21863 0 86400 78 0 13 240 2070
vector 5 dtnsim.node[3].dtn sdrBytesStored:vector ETV
attr interpolationmode none
attr recordingmode vector
attr source sdrBytesStored
attr title sdrBytesStored
5	69351 1421 0 21863 0 86400 78 0 1625000 30000000 32343750000000
vector 6 dtnsim.node[4].dtn sdrBundleStored:vector ETV
attr interpolationmode none
attr recordingmode vector
attr source sdrBundleStored
attr title sdrBundleStored
6	70772 6423 0 21863 0 86400 370 0 123 23334 2010104
vector 7 dtnsim.node[4].dtn sdrBytesStored:vector ETV
attr interpolationmode none
attr recordingmode vector
attr source sdrBytesStored
attr title sdrBytesStored
7	77195 8301 0 21863 0 86400 370 0 15375000 2916750000 3.1407875e+16
vector 8 dtnsim.node[5].dtn sdrBundleStored:vector ETV
attr interpolationmode none
attr recordingmode vector
attr source sdrBundleStored
attr title sdrBundleStored
8	85496 1330 0 21863 0 86400 84 0 10 221 1361
vector 9 dtnsim.node[5].dtn sdrBytesStored:vector ETV
attr interpolationmode none
attr recordingmode vector
attr source sdrBytesStored
attr title sdrBytesStored
9	86826 1633 0 21863 0 86400 84 0 1250000 27625000 21265625000000
vector 10 dtnsim.node[6].dtn sdrBundleStored:vector ETV
attr interpolationmode none
attr recordingmode vector
attr source sdrBundleStored
attr title sdrBundleStored
10	88459 2191 0 21863 0 86400 128 0 13 775 5451
vector 11 dtnsim.node[6].dtn sdrBytesStored:vector ETV
attr interpolationmode none
attr recordingmode vector
attr source sdrBytesStored
attr title sdrBytesStored
11	90650 2831 0 21863 0 86400 128 0 1625000 96875000 85171875000000
vector 12 dtnsim.node[7].dtn sdrBundleStored:vector ETV
attr interpolationmode none
attr recordingmode vector
attr source sdrBundleStored
attr title sdrBundleStored
12	93481 924 0 21863 0 86400 56 0 7 113 355
vector 13 dtnsim.node[7].dtn sdrBytesStored:vector ETV
attr interpolationmode none
attr recordingmode vector
attr source sdrBytesStored
attr title sdrBytesStored
13	94405 1184 0 21863 0 86400 56 0 875000 14125000 5546875000000
vector 14 dtnsim.node[8].dtn sdrBundleStored:vector ETV
attr interpolationmode none
attr recordingmode vector
attr source sdrBundleStored
attr title sdrBundleStored
14	95589 443 0 21863 0 86400 28 0 8 71 353
vector 15 dtnsim.node[8].dtn sdrBytesStored:vector ETV
attr interpolationmode none
attr recordingmode vector
attr source sdrBytesStored
attr title sdrBytesStored
15	96032 549 0 21863 0 86400 28 0 1000000 8875000 5515625000000
vector 16 dtnsim.node[9].dtn sdrBundleStored:vector ETV
attr interpolationmode none
attr recordingmode vector
attr source sdrBundleStored
attr title sdrBundleStored
16	96581 350 0 21863 0 86400 22 0 10 100 670
vector 17 dtnsim.node[9].dtn sdrBytesStored:vector ETV
attr interpolationmode none
attr recordingmode vector
attr source sdrBytesStored
attr title sdrBytesStored
17	96931 449 0 21863 0 86400 22 0 1250000 12500000 10468750000000
vector 18 dtnsim.node[10].dtn sdrBundleStored:vector ETV
attr interpolationmode none
attr recordingmode vector
attr source sdrBundleStored
attr title sdrBundleStored
18	97380 407 0 21863 0 86400 26 0 7 56 240
vector 19 dtnsim.node[10].dtn sdrBytesStored:vector ETV
attr interpolationmode none
attr recordingmode vector
attr source sdrBytesStored
attr title sdrBytesStored
19	97787 502 0 21863 0 86400 26 0 875000 7000000 3750000000000
vector 20 dtnsim.node[11].dtn sdrBundleStored:vector ETV
attr interpolationmode none
attr recordingmode vector
attr source sdrBundleStored
attr title sdrBundleStored
20	98289 622 0 21863 0 86400 38 0 10 124 710
vector 21 dtnsim.node[11].dtn sdrBytesStored:vector ETV
attr interpolationmode none
attr recordingmode vector
attr source sdrBytesStored
attr title sdrBytesStored
21	98911 801 0 21863 0 86400 38 0 1250000 15500000 11093750000000
vector 22 dtnsim.node[12].dtn sdrBundleStored:vector ETV
attr interpolationmode none
attr recordingmode vector
attr source sdrBundleStored
attr title sdrBundleStored
22	99712 684 0 21863 0 86400 42 0 8 76 356
vector 23 dtnsim.node[12].dtn sdrBytesStored:vector ETV
attr interpolationmode none
attr recordingmode vector
attr source sdrBytesStored
attr title sdrBytesStored
23	100396 820 0 21863 0 86400 42 0 1000000 9500000 5562500000000
vector 24 dtnsim.node[13].dtn sdrBundleStored:vector ETV
attr interpolationmode none
attr recordingmode vector
attr source sdrBundleStored
attr title sdrBundleStored
24	101216 342 0 21863 0 86400 22 0 7 58 250
vector 25 dtnsim.node[13].dtn sdrBytesStored:vector ETV
attr interpolationmode none
attr recordingmode vector
attr source sdrBytesStored
attr title sdrBytesStored
25	101558 432 0 21863 0 86400 22 0 875000 7250000 3906250000000
vector 26 dtnsim.node[14].dtn sdrBundleStored:vector ETV
attr interpolationmode none
attr recordingmode vector
attr source sdrBundleStored
attr title sdrBundleStored
26	101990 342 0 21863 0 86400 22 0 7 58 250
vector 27 dtnsim.node[14].dtn sdrBytesStored:vector ETV
attr interpolationmode none
attr recordingmode vector
attr source sdrBytesStored
attr title sdrBytesStored
27	102332 432 0 21863 0 86400 22 0 875000 7250000 3906250000000
vector 28 dtnsim.node[15].dtn sdrBundleStored:vector ETV
attr interpolationmode none
attr recordingmode vector
attr source sdrBundleStored
attr title sdrBundleStored
28	102764 448 0 21863 0 86400 28 0 7 85 373
vector 29 dtnsim.node[15].dtn sdrBytesStored:vector ETV
attr interpolationmode none
attr recordingmode vector
attr source sdrBytesStored
attr title sdrBytesStored
29	103212 573 0 21863 0 86400 28 0 875000 10625000 5828125000000
vector 30 dtnsim.node[16].dtn sdrBundleStored:vector ETV
attr interpolationmode none
attr recordingmode vector
attr source sdrBundleStored
attr title sdrBundleStored
30	103785 346 0 21863 0 86400 22 0 7 64 274
vector 31 dtnsim.node[16].dtn sdrBytesStored:vector ETV
attr interpolationmode none
attr recordingmode vector
attr source sdrBytesStored
attr title sdrBytesStored
31	104131 441 0 21863 0 86400 22 0 875000 8000000 4281250000000
vector 32 dtnsim.node[17].dtn sdrBundleStored:vector ETV
attr interpolationmode none
attr recordingmode vector
attr source sdrBundleStored
attr title sdrBundleStored
32	104572 375 0 21863 0 86400 24 0 7 65 275
vector 33 dtnsim.node[17].dtn sdrBytesStored:vector ETV
attr interpolationmode none
attr recordingmode vector
attr source sdrBytesStored
attr title sdrBytesStored
33	104947 475 0 21863 0 86400 24 0 875000 8125000 4296875000000
vector 34 dtnsim.node[18].dtn sdrBundleStored:vector ETV
attr interpolationmode none
attr recordingmode vector
attr source sdrBundleStored
attr title sdrBundleStored
34	105422 410 0 21863 0 86400 26 0 9 84 492
vector 35 dtnsim.node[18].dtn sdrBytesStored:vector ETV
attr interpolationmode none
attr recordingmode vector
attr source sdrBytesStored
attr title sdrBytesStored
35	105832 513 0 21863 0 86400 26 0 1125000 10500000 7687500000000
vector 36 dtnsim.node[19].dtn sdrBundleStored:vector ETV
attr interpolationmode none
attr recordingmode vector
attr source sdrBundleStored
attr title sdrBundleStored
36	106345 411 0 21863 0 86400 26 0 7 56 240
vector 37 dtnsim.node[19].dtn sdrBytesStored:vector ETV
attr interpolationmode none
attr recordingmode vector
attr source sdrBytesStored
attr title sdrBytesStored
37	106756 506 0 21863 0 86400 26 0 875000 7000000 3750000000000
vector 38 dtnsim.node[20].dtn sdrBundleStored:vector ETV
attr interpolationmode none
attr recordingmode vector
attr source sdrBundleStored
attr title sdrBundleStored
38	107262 436 0 21863 0 86400 28 0 7 99 465
vector 39 dtnsim.node[20].dtn sdrBytesStored:vector ETV
attr interpolationmode none
attr recordingmode vector
attr source sdrBytesStored
attr title sdrBytesStored
39	107698 566 0 21863 0 86400 28 0 875000 12375000 7265625000000
vector 40 dtnsim.node[21].dtn sdrBundleStored:vector ETV
attr interpolationmode none
attr recordingmode vector
attr source sdrBundleStored
attr title sdrBundleStored
40	108264 344 0 21863 0 86400 22 0 7 58 250
vector 41 dtnsim.node[21].dtn sdrBytesStored:vector ETV
attr interpolationmode none
attr recordingmode vector
attr source sdrBytesStored
attr title sdrBytesStored
41	108608 434 0 21863 0 86400 22 0 875000 7250000 3906250000000
vector 42 dtnsim.node[22].dtn sdrBundleStored:vector ETV
attr interpolationmode none
attr recordingmode vector
attr source sdrBundleStored
attr title sdrBundleStored
42	109042 351 0 21863 0 86400 22 0 10 100 670
vector 43 dtnsim.node[22].dtn sdrBytesStored:vector ETV
attr interpolationmode none
attr recordingmode vector
attr source sdrBytesStored
attr title sdrBytesStored
43	109393 450 0 21863 0 86400 22 0 1250000 12500000 10468750000000
vector 44 dtnsim.node[23].dtn sdrBundleStored:vector ETV
attr interpolationmode none
attr recordingmode vector
attr source sdrBundleStored
attr title sdrBundleStored
44	109843 521 0 21863 0 86400 32 0 10 105 675
vector 45 dtnsim.node[23].dtn sdrBytesStored:vector ETV
attr interpolationmode none
attr recordingmode vector
attr source sdrBytesStored
attr title sdrBytesStored
45	110364 645 0 21863 0 86400 32 0 1250000 13125000 10546875000000
vector 46 dtnsim.node[24].dtn sdrBundleStored:vector ETV
attr interpolationmode none
attr recordingmode vector
attr source sdrBundleStored
attr title sdrBundleStored
46	111009 346 0 21863 0 86400 22 0 8 68 350
vector 47 dtnsim.node[24].dtn sdrBytesStored:vector ETV
attr interpolationmode none
attr recordingmode vector
attr source sdrBytesStored
attr title sdrBytesStored
47	111355 437 0 21863 0 86400 22 0 1000000 8500000 5468750000000
vector 48 dtnsim.node[25].dtn sdrBundleStored:vector ETV
attr interpolationmode none
attr recordingmode vector
attr source sdrBundleStored
attr title sdrBundleStored
48	111792 482 0 21863 0 86400 30 0 9 100 542
vector 49 dtnsim.node[25].dtn sdrBytesStored:vector ETV
attr interpolationmode none
attr recordingmode vector
attr source sdrBytesStored
attr title sdrBytesStored
49	112274 615 0 21863 0 86400 30 0 1125000 12500000 8468750000000
vector 50 dtnsim.node[26].dtn sdrBundleStored:vector ETV
attr interpolationmode none
attr recordingmode vector
attr source sdrBundleStored
attr title sdrBundleStored
50	112889 597 0 21863 0 86400 38 0 9 218 1650
vector 51 dtnsim.node[26].dtn sdrBytesStored:vector ETV
attr interpolationmode none
attr recordingmode vector
attr source sdrBytesStored
attr title sdrBytesStored
51	113486 786 0 21863 0 86400 38 0 1125000 27250000 25781250000000
vector 52 dtnsim.node[27].dtn sdrBundleStored:vector ETV
attr interpolationmode none
attr recordingmode vector
attr source sdrBundleStored
attr title sdrBundleStored
52	114272 343 0 21863 0 86400 22 0 7 58 250
vector 53 dtnsim.node[27].dtn sdrBytesStored:vector ETV
attr interpolationmode none
attr recordingmode vector
attr source sdrBytesStored
attr title sdrBytesStored
53	114615 433 0 21863 0 86400 22 0 875000 7250000 3906250000000
vector 54 dtnsim.node[28].dtn sdrBundleStored:vector ETV
attr interpolationmode none
attr recordingmode vector
attr source sdrBundleStored
attr title sdrBundleStored
54	115048 344 0 21863 0 86400 22 0 9 82 490
vector 55 dtnsim.node[28].dtn sdrBytesStored:vector ETV
attr interpolationmode none
attr recordingmode vector
attr source sdrBytesStored
attr title sdrBytesStored
55	115392 437 0 21863 0 86400 22 0 1125000 10250000 7656250000000
vector 56 dtnsim.node[29].dtn sdrBundleStored:vector ETV
attr interpolationmode none
attr recordingmode vector
attr source sdrBundleStored
attr title sdrBundleStored
56	115829 351 0 21863 0 86400 22 0 10 100 670
vector 57 dtnsim.node[29].dtn sdrBytesStored:vector ETV
attr interpolationmode none
attr recordingmode vector
attr source sdrBytesStored
attr title sdrBytesStored
57	116180 450 0 21863 0 86400 22 0 1250000 12500000 10468750000000
vector 58 dtnsim.node[30].dtn sdrBundleStored:vector ETV
attr interpolationmode none
attr recordingmode vector
attr source sdrBundleStored
attr title sdrBundleStored
58	116630 347 0 21863 0 86400 22 0 9 82 490
vector 59 dtnsim.node[30].dtn sdrBytesStored:vector ETV
attr interpolationmode none
attr recordingmode vector
attr source sdrBytesStored
attr title sdrBytesStored
59	116977 440 0 21863 0 86400 22 0 1125000 10250000 7656250000000
vector 60 dtnsim.node[31].dtn sdrBundleStored:vector ETV
attr interpolationmode none
attr recordingmode vector
attr source sdrBundleStored
attr title sdrBundleStored
60	117417 182 0 21863 0 86400 12 0 10 65 485
vector 61 dtnsim.node[31].dtn sdrBytesStored:vector ETV
attr interpolationmode none
attr recordingmode vector
attr source sdrBytesStored
attr title sdrBytesStored
61	117599 239 0 21863 0 86400 12 0 1250000 8125000 7578125000000
vector 62 dtnsim.node[32].dtn sdrBundleStored:vector ETV
attr interpolationmode none
attr recordingmode vector
attr source sdrBundleStored
attr title sdrBundleStored
62	117838 434 0 21863 0 86400 26 0 7 84 376
vector 63 dtnsim.node[32].dtn sdrBytesStored:vector ETV
attr interpolationmode none
attr recordingmode vector
attr source sdrBytesStored
attr title sdrBytesStored
63	118272 549 0 21863 0 86400 26 0 875000 10500000 5875000000000
vector 64 dtnsim.node[33].dtn sdrBundleStored:vector ETV
attr interpolationmode none
attr recordingmode vector
attr source sdrBundleStored
attr title sdrBundleStored
64	118821 490 0 21863 0 86400 30 0 1 14 14
vector 65 dtnsim.node[33].dtn sdrBytesStored:vector ETV
attr interpolationmode none
attr recordingmode vector
attr source sdrBytesStored
attr title sdrBytesStored
65	119311 560 0 21863 0 86400 30 0 125000 1750000 218750000000
vector 66 dtnsim.node[34].dtn sdrBundleStored:vector ETV
attr interpolationmode none
attr recordingmode vector
attr source sdrBundleStored
attr title sdrBundleStored
66	119871 592 0 21863 0 86400 36 0 1 17 17
vector 67 dtnsim.node[34].dtn sdrBytesStored:vector ETV
attr interpolationmode none
attr recordingmode vector
attr source sdrBytesStored
attr title sdrBytesStored
67	120463 677 0 21863 0 86400 36 0 125000 2125000 265625000000
vector 68 dtnsim.node[35].dtn sdrBundleStored:vector ETV
attr interpolationmode none
attr recordingmode vector
attr source sdrBundleStored
attr title sdrBundleStored
68	121140 1284 0 21863 0 86400 76 0 14 433 3629
vector 69 dtnsim.node[35].dtn sdrBytesStored:vector ETV
attr interpolationmode none
attr recordingmode vector
attr source sdrBytesStored
attr title sdrBytesStored
69	122424 1640 0 21863 0 86400 76 0 1750000 54125000 56703125000000
vector 70 dtnsim.node[36].dtn sdrBundleStored:vector ETV
attr interpolationmode none
attr recordingmode vector
attr source sdrBundleStored
attr title sdrBundleStored
70	124064 1106 0 21863 0 86400 67 0 2 88 142
vector 71 dtnsim.node[36].dtn sdrBytesStored:vector ETV
attr interpolationmode none
attr recordingmode vector
attr source sdrBytesStored
attr title sdrBytesStored
71	125170 1411 0 21863 0 86400 67 0 250000 11000000 2218750000000
vector 72 dtnsim.node[37].dtn sdrBundleStored:vector ETV
attr interpolationmode none
attr recordingmode vector
attr source sdrBundleStored
attr title sdrBundleStored
72	126581 1546 0 21863 0 86400 93 0 2 127 207
vector 73 dtnsim.node[37].dtn sdrBytesStored:vector ETV
attr interpolationmode none
attr recordingmode vector
attr source sdrBytesStored
attr title sdrBytesStored
73	128127 1981 0 21863 0 86400 93 0 250000 15875000 3234375000000
vector 74 dtnsim.node[38].dtn sdrBundleStored:vector ETV
attr interpolationmode none
attr recordingmode vector
attr source sdrBundleStored
attr title sdrBundleStored
74	130108 1854 0 21863 0 86400 112 0 3 143 315
vector 75 dtnsim.node[38].dtn sdrBytesStored:vector ETV
attr interpolationmode none
attr recordingmode vector
attr source sdrBytesStored
attr title sdrBytesStored
75	131962 2244 0 21863 0 86400 112 0 375000 17875000 4921875000000
vector 76 dtnsim.node[39].dtn sdrBundleStored:vector ETV
attr interpolationmode none
attr recordingmode vector
attr source sdrBundleStored
attr title sdrBundleStored
76	134206 1841 0 21863 0 86400 112 0 2 61 67
vector 77 dtnsim.node[39].dtn sdrBytesStored:vector ETV
attr interpolationmode none
attr recordingmode vector
attr source sdrBytesStored
attr title sdrBytesStored
77	136047 2131 0 21863 0 86400 112 0 250000 7625000 1046875000000
vector 78 dtnsim.node[40].dtn sdrBundleStored:vector ETV
attr interpolationmode none
attr recordingmode vector
attr source sdrBundleStored
attr title sdrBundleStored
78	138178 2028 0 21863 0 86400 124 0 9 259 1381
vector 79 dtnsim.node[40].dtn sdrBytesStored:vector ETV
attr interpolationmode none
attr recordingmode vector
attr source sdrBytesStored
attr title sdrBytesStored
79	140206 2467 0 21863 0 86400 124 0 1125000 32375000 21578125000000
vector 80 dtnsim.node[41].dtn sdrBundleStored:vector ETV
attr interpolationmode none
attr recordingmode vector
attr source sdrBundleStored
attr title sdrBundleStored
80	142673 2592 0 21863 0 86400 155 0 13 1076 10662
vector 81 dtnsim.node[41].dtn sdrBytesStored:vector ETV
attr interpolationmode none
attr recordingmode vector
attr source sdrBytesStored
attr title sdrBytesStored
81	145265 3293 0 21863 0 86400 155 0 1625000 134500000 1.6659375e+14
vector 82 dtnsim.node[42].dtn sdrBundleStored:vector ETV
attr interpolationmode none
attr recordingmode vector
attr source sdrBundleStored
attr title sdrBundleStored
82	148558 3270 0 21863 0 86400 200 0 6 179 539
vector 83 dtnsim.node[42].dtn sdrBytesStored:vector ETV
attr interpolationmode none
attr recordingmode vector
attr source sdrBytesStored
attr title sdrBytesStored
83	151828 3815 0 21863 0 86400 200 0 750000 22375000 8421875000000
vector 84 dtnsim.node[43].dtn sdrBundleStored:vector ETV
attr interpolationmode none
attr recordingmode vector
attr source sdrBundleStored
attr title sdrBundleStored
84	155643 4738 0 21863 0 86400 282 0 25 2814 42864
vector 85 dtnsim.node[43].dtn sdrBytesStored:vector ETV
attr interpolationmode none
attr recordingmode vector
attr source sdrBytesStored
attr title sdrBytesStored
85	160381 6161 0 21863 0 86400 282 0 3125000 351750000 6.6975e+14
vector 86 dtnsim.node[44].dtn sdrBundleStored:vector ETV
attr interpolationmode none
attr recordingmode vector
attr source sdrBundleStored
attr title sdrBundleStored
86	166542 5795 0 21863 0 86400 346 0 16 2456 32856
vector 87 dtnsim.node[44].dtn sdrBytesStored:vector ETV
attr interpolationmode none
attr recordingmode vector
attr source sdrBytesStored
attr title sdrBytesStored
87	172337 7258 0 21863 0 86400 346 0 2000000 307000000 5.13375e+14
vector 88 dtnsim.node[45].dtn sdrBundleStored:vector ETV
attr interpolationmode none
attr recordingmode vector
attr source sdrBundleStored
attr title sdrBundleStored
88	179595 6741 0 21863 0 86400 398 0 20 4048 66410
vector 89 dtnsim.node[45].dtn sdrBytesStored:vector ETV
attr interpolationmode none
attr recordingmode vector
attr source sdrBytesStored
attr title sdrBytesStored
89	186336 8539 0 21863 0 86400 398 0 2500000 506000000 1.03765625e+15
vector 90 dtnsim.node[46].dtn sdrBundleStored:vector ETV
attr interpolationmode none
attr recordingmode vector
attr source sdrBundleStored
attr title sdrBundleStored
90	194875 8617 0 21863 0 86400 508 0 18 3617 45245
vector 91 dtnsim.node[46].dtn sdrBytesStored:vector ETV
attr interpolationmode none
attr recordingmode vector
attr source sdrBytesStored
attr title sdrBytesStored
91	203492 10688 0 21863 0 86400 508 0 2250000 452125000 7.06953125e+14
vector 92 dtnsim.node[47].dtn sdrBundleStored:vector ETV
attr interpolationmode none
attr recordingmode vector
attr source sdrBundleStored
attr title sdrBundleStored
92	214180 13257 0 21863 0 86400 751 0 126 48116 4003404
vector 93 dtnsim.node[47].dtn sdrBytesStored:vector ETV
attr interpolationmode none
attr recordingmode vector
attr source sdrBytesStored
attr title sdrBytesStored
93	227437 17101 0 21863 0 86400 751 0 15750000 6014500000 6.25531875e+16
vector 94 dtnsim.node[48].dtn sdrBundleStored:vector ETV
attr interpolationmode none
attr recordingmode vector
attr source sdrBundleStored
attr title sdrBundleStored
94	244538 8175 0 21863 0 86400 459 0 52 10390 294714
vector 95 dtnsim.node[48].dtn sdrBytesStored:vector ETV
attr interpolationmode none
attr recordingmode vector
attr source sdrBytesStored
attr title sdrBytesStored
95	252713 10484 0 21863 0 86400 459 0 6500000 1298750000 4.60490625e+15
vector 96 dtnsim.node[7].dtn routeCgrDijkstraCalls:vector ETV
attr interpolationmode none
attr recordingmode vector
attr source routeCgrDijkstraCalls
attr title routeCgrDijkstraCalls
96	263197 443 147 18314 1 55152 27 0 45 45 2025
vector 97 dtnsim.node[7].dtn routeCgrDijkstraLoops:vector ETV
attr interpolationmode none
attr recordingmode vector
attr source routeCgrDijkstraLoops
attr title routeCgrDijkstraLoops
97	263640 445 147 18314 1 55152 27 0 1739 1739 3024121
vector 98 dtnsim.node[7].dtn routeCgrRouteTableEntriesCreated:vector ETV
attr interpolationmode none
attr recordingmode vector
attr source routeCgrRouteTableEntriesCreated
attr title routeCgrRouteTableEntriesCreated
98	264085 443 147 18314 1 55152 27 0 39 39 1521
vector 99 dtnsim.node[7].dtn routeCgrRouteTableEntriesExplored:vector ETV
attr interpolationmode none
attr recordingmode vector
attr source routeCgrRouteTableEntriesExplored
attr title routeCgrRouteTableEntriesExplored
99	264528 452 147 18314 1 55152 27 0 39 390 15210
vector 100 dtnsim.node[8].dtn routeCgrDijkstraCalls:vector ETV
attr interpolationmode none
attr recordingmode vector
attr source routeCgrDijkstraCalls
attr title routeCgrDijkstraCalls
100	264980 217 148 15361 1 41525 13 0 116 116 13456
vector 101 dtnsim.node[8].dtn routeCgrDijkstraLoops:vector ETV
attr interpolationmode none
attr recordingmode vector
attr source routeCgrDijkstraLoops
attr title routeCgrDijkstraLoops
101	265197 218 148 15361 1 41525 13 0 3241 3241 10504081
vector 102 dtnsim.node[8].dtn routeCgrRouteTableEntriesCreated:vector ETV
attr interpolationmode none
attr recordingmode vector
attr source routeCgrRouteTableEntriesCreated
attr title routeCgrRouteTableEntriesCreated
102	265415 216 148 15361 1 41525 13 0 88 88 7744
vector 103 dtnsim.node[8].dtn routeCgrRouteTableEntriesExplored:vector ETV
attr interpolationmode none
attr recordingmode vector
attr source routeCgrRouteTableEntriesExplored
attr title routeCgrRouteTableEntriesExplored
103	265631 225 148 15361 1 41525 13 0 88 880 77440
vector 104 dtnsim.node[9].dtn routeCgrDijkstraCalls:vector ETV
attr interpolationmode none
attr recordingmode vector
attr source routeCgrDijkstraCalls
attr title routeCgrDijkstraCalls
104	265856 164 149 11449 1 32401 10 0 12 12 144
vector 105 dtnsim.node[9].dtn routeCgrDijkstraLoops:vector ETV
attr interpolationmode none
attr recordingmode vector
attr source routeCgrDijkstraLoops
attr title routeCgrDijkstraLoops
105	266020 165 149 11449 1 32401 10 0 289 289 83521
vector 106 dtnsim.node[9].dtn routeCgrRouteTableEntriesCreated:vector ETV
attr interpolationmode none
attr recordingmode vector
attr source routeCgrRouteTableEntriesCreated
attr title routeCgrRouteTableEntriesCreated
106	266185 164 149 11449 1 32401 10 0 11 11 121
vector 107 dtnsim.node[9].dtn routeCgrRouteTableEntriesExplored:vector ETV
attr interpolationmode none
attr recordingmode vector
attr source routeCgrRouteTableEntriesExplored
attr title routeCgrRouteTableEntriesExplored
107	266349 173 149 11449 1 32401 10 11 11 110 1210
vector 108 dtnsim.node[10].dtn routeCgrDijkstraCalls:vector ETV
attr interpolationmode none
attr recordingmode vector
attr source routeCgrDijkstraCalls
attr title routeCgrDijkstraCalls
108	266522 198 150 17555 1 49338 12 0 62 62 3844
vector 109 dtnsim.node[10].dtn routeCgrDijkstraLoops:vector ETV
attr interpolationmode none
attr recordingmode vector
attr source routeCgrDijkstraLoops
attr title routeCgrDijkstraLoops
109	266720 200 150 17555 1 49338 12 0 2378 2378 5654884
vector 110 dtnsim.node[10].dtn routeCgrRouteTableEntriesCreated:vector ETV
attr interpolationmode none
attr recordingmode vector
attr source routeCgrRouteTableEntriesCreated
attr title routeCgrRouteTableEntriesCreated
110	266920 198 150 17555 1 49338 12 0 53 53 2809
vector 111 dtnsim.node[10].dtn routeCgrRouteTableEntriesExplored:vector ETV
attr interpolationmode none
attr recordingmode vector
attr source routeCgrRouteTableEntriesExplored
attr title routeCgrRouteTableEntriesExplored
111	267118 207 150 17555 1 49338 12 0 53 530 28090
vector 112 dtnsim.node[11].dtn routeCgrDijkstraCalls:vector ETV
attr interpolationmode none
attr recordingmode vector
attr source routeCgrDijkstraCalls
attr title routeCgrDijkstraCalls
112	267325 308 151 14001 1 40871 18 0 62 62 3844
vector 113 dtnsim.node[11].dtn routeCgrDijkstraLoops:vector ETV
attr interpolationmode none
attr recordingmode vector
attr source routeCgrDijkstraLoops
attr title routeCgrDijkstraLoops
113	267633 310 151 14001 1 40871 18 0 1388 1388 1926544
vector 114 dtnsim.node[11].dtn routeCgrRouteTableEntriesCreated:vector ETV
attr interpolationmode none
attr recordingmode vector
attr source routeCgrRouteTableEntriesCreated
attr title routeCgrRouteTableEntriesCreated
114	267943 308 151 14001 1 40871 18 0 50 50 2500
vector 115 dtnsim.node[11].dtn routeCgrRouteTableEntriesExplored:vector ETV
attr interpolationmode none
attr recordingmode vector
attr source routeCgrRouteTableEntriesExplored
attr title routeCgrRouteTableEntriesExplored
115	268251 317 151 14001 1 40871 18 0 50 500 25000
vector 116 dtnsim.node[12].dtn routeCgrDijkstraCalls:vector ETV
attr interpolationmode none
attr recordingmode vector
attr source routeCgrDijkstraCalls
attr title routeCgrDijkstraCalls
116	268568 345 152 15488 1 41554 20 0 141 141 19881
vector 117 dtnsim.node[12].dtn routeCgrDijkstraLoops:vector ETV
attr interpolationmode none
attr recordingmode vector
attr source routeCgrDijkstraLoops
attr title routeCgrDijkstraLoops
117	268913 346 152 15488 1 41554 20 0 3775 3775 14250625
vector 118 dtnsim.node[12].dtn routeCgrRouteTableEntriesCreated:vector ETV
attr interpolationmode none
attr recordingmode vector
attr source routeCgrRouteTableEntriesCreated
attr title routeCgrRouteTableEntriesCreated
118	269259 345 152 15488 1 41554 20 0 114 114 12996
vector 119 dtnsim.node[12].dtn routeCgrRouteTableEntriesExplored:vector ETV
attr interpolationmode none
attr recordingmode vector
attr source routeCgrRouteTableEntriesExplored
attr title routeCgrRouteTableEntriesExplored
119	269604 363 152 15488 1 41554 20 0 114 1140 129960
vector 120 dtnsim.node[13].dtn routeCgrDijkstraCalls:vector ETV
attr interpolationmode none
attr recordingmode vector
attr source routeCgrDijkstraCalls
attr title routeCgrDijkstraCalls
120	269967 164 153 11453 1 32401 10 0 40 40 1600
vector 121 dtnsim.node[13].dtn routeCgrDijkstraLoops:vector ETV
attr interpolationmode none