version 3
run General-0-20230408-20:20:50-1229
attr configname General
attr datetime 20230408-20:20:50
attr datetimef 20230408-202050
attr experiment General
attr inifile hindawi_rrn.ini
attr iterationvars $meanTTF=100
attr iterationvarsd meanTTF=100
attr iterationvarsf meanTTF=100-
attr measurement $meanTTF=100
attr network src.dtnsim
attr processid 1229
attr repetition 0
attr replication #0
attr resultdir results
attr runnumber 0
attr seedset 0
itervar meanTTF 100
config allow-object-stealing-on-deletion true
config network src.dtnsim
config repeat 10
config sim-time-limit 86400s
config dtnsim.nodesNumber 48
config dtnsim.node[48].icon "\"server2\""
config dtnsim.node[1..6].icon "\"receiverdish\""
config dtnsim.node[7..31].icon "\"antennatower\""
config dtnsim.node[32..47].icon "\"satellite\""
config dtnsim.node[32..47].fault.enable false
config dtnsim.node[32..47].fault.faultSeed (0+10)*10
config dtnsim.node[32..47].fault.meanTTF 100s
config dtnsim.node[32..47].fault.meanTTR 60*5s
config dtnsim.node[*].dtn.routing "\"cgrModelRev17\""
config dtnsim.node[*].dtn.routingType "\"routeListType:allPaths-initial+anchor,volumeAware:allContacts,extensionBlock:on,contactPlan:local\""
config dtnsim.node[*].dtn.printRoutingDebug false
config dtnsim.central.contactsFile "\"contactPlan/RingRoad_16sats_ATrack_6hotspots_simtime24hs_comrange1000km.txt\""
config dtnsim.node[48].app.enable true
config dtnsim.node[48].app.returnToSender false
config dtnsim.node[48].app.bundlesNumber "\"10,10,10,10,10,10,10,10,10,10,10,10,10,10,10,10,10,10,10,10,10,10,10,10,10\""
config dtnsim.node[48].app.start "\"1,1,1,1,1,1,1,1,1,1,1,1,1,1,1,1,1,1,1,1,1,1,1,1,1\""
config dtnsim.node[48].app.interval 3600
config dtnsim.node[48].app.destinationEid "\"7,8,9,10,11,12,13,14,15,16,17,18,19,20,21,22,23,24,25,26,27,28,29,30,31\""
config dtnsim.node[48].app.size "\"125000,125000,125000,125000,125000,125000,125000,125000,125000,125000,125000,125000,125000,125000,125000,125000,125000,125000,125000,125000,125000,125000,125000,125000,125000\""
config dtnsim.node[7..31].app.enable true
config dtnsim.node[7..31].app.returnToSender false
config dtnsim.node[7..31].app.bundlesNumber "\"10\""
config dtnsim.node[7..31].app.start "\"1\""
config dtnsim.node[7..31].app.interval 3600
config dtnsim.node[7..31].app.destinationEid "\"48\""
config dtnsim.node[7..31].app.size "\"125000\""

vector 0 dtnsim.node[1].dtn sdrBundleStored:vector ETV
attr interpolationmode none
attr recordingmode vector
attr source sdrBundleStored
attr title sdrBundleStored
vector 1 dtnsim.node[1].dtn sdrBytesStored:vector ETV
attr interpolationmode none
attr recordingmode vector
attr source sdrBytesStored
attr title sdrBytesStored
vector 2 dtnsim.node[2].dtn sdrBundleStored:vector ETV
attr interpolationmode none
attr recordingmode vector
attr source sdrBundleStored
attr title sdrBundleStored
vector 3 dtnsim.node[2].dtn sdrBytesStored:vector ETV
attr interpolationmode none
attr recordingmode vector
attr source sdrBytesStored
attr title sdrBytesStored
vector 4 dtnsim.node[3].dtn sdrBundleStored:vector ETV
attr interpolationmode none
attr recordingmode vector
attr source sdrBundleStored
attr title sdrBundleStored
vector 5 dtnsim.node[3].dtn sdrBytesStored:vector ETV
attr interpolationmode none
attr recordingmode vector
attr source sdrBytesStored
attr title sdrBytesStored
vector 6 dtnsim.node[4].dtn sdrBundleStored:vector ETV
attr interpolationmode none
attr recordingmode vector
attr source sdrBundleStored
attr title sdrBundleStored
vector 7 dtnsim.node[4].dtn sdrBytesStored:vector ETV
attr interpolationmode none
attr recordingmode vector
attr source sdrBytesStored
attr title sdrBytesStored
vector 8 dtnsim.node[5].dtn sdrBundleStored:vector ETV
attr interpolationmode none
attr recordingmode vector
attr source sdrBundleStored
attr title sdrBundleStored
vector 9 dtnsim.node[5].dtn sdrBytesStored:vector ETV
attr interpolationmode none
attr recordingmode vector
attr source sdrBytesStored
attr title sdrBytesStored
vector 10 dtnsim.node[6].dtn sdrBundleStored:vector ETV
attr interpolationmode none
attr recordingmode vector
attr source sdrBundleStored
attr title sdrBundleStored
vector 11 dtnsim.node[6].dtn sdrBytesStored:vector ETV
attr interpolationmode none
attr recordingmode vector
attr source sdrBytesStored
attr title sdrBytesStored
vector 12 dtnsim.node[7].dtn sdrBundleStored:vector ETV
attr interpolationmode none
attr recordingmode vector
attr source sdrBundleStored
attr title sdrBundleStored
vector 13 dtnsim.node[7].dtn sdrBytesStored:vector ETV
attr interpolationmode none
attr recordingmode vector
attr source sdrBytesStored
attr title sdrBytesStored
vector 14 dtnsim.node[8].dtn sdrBundleStored:vector ETV
attr interpolationmode none
attr recordingmode vector
attr source sdrBundleStored
attr title sdrBundleStored
vector 15 dtnsim.node[8].dtn sdrBytesStored:vector ETV
attr interpolationmode none
attr recordingmode vector
attr source sdrBytesStored
attr title sdrBytesStored
vector 16 dtnsim.node[9].dtn sdrBundleStored:vector ETV
attr interpolationmode none
attr recordingmode vector
attr source sdrBundleStored
attr title sdrBundleStored
vector 17 dtnsim.node[9].dtn sdrBytesStored:vector ETV
attr interpolationmode none
attr recordingmode vector
attr source sdrBytesStored
attr title sdrBytesStored
vector 18 dtnsim.node[10].dtn sdrBundleStored:vector ETV
attr interpolationmode none
attr recordingmode vector
attr source sdrBundleStored
attr title sdrBundleStored
vector 19 dtnsim.node[10].dtn sdrBytesStored:vector ETV
attr interpolationmode none
attr recordingmode vector
attr source sdrBytesStored
attr title sdrBytesStored
vector 20 dtnsim.node[11].dtn sdrBundleStored:vector ETV
attr interpolationmode none
attr recordingmode vector
attr source sdrBundleStored
attr title sdrBundleStored
vector 21 dtnsim.node[11].dtn sdrBytesStored:vector ETV
attr interpolationmode none
attr recordingmode vector
attr source sdrBytesStored
attr title sdrBytesStored
vector 22 dtnsim.node[12].dtn sdrBundleStored:vector ETV
attr interpolationmode none
attr recordingmode vector
attr source sdrBundleStored
attr title sdrBundleStored
vector 23 dtnsim.node[12].dtn sdrBytesStored:vector ETV
attr interpolationmode none
attr recordingmode vector
attr source sdrBytesStored
attr title sdrBytesStored
vector 24 dtnsim.node[13].dtn sdrBundleStored:vector ETV
attr interpolationmode none
attr recordingmode vector
attr source sdrBundleStored
attr title sdrBundleStored
vector 25 dtnsim.node[13].dtn sdrBytesStored:vector ETV
attr interpolationmode none
attr recordingmode vector
attr source sdrBytesStored
attr title sdrBytesStored
vector 26 dtnsim.node[14].dtn sdrBundleStored:vector ETV
attr interpolationmode none
attr recordingmode vector
attr source sdrBundleStored
attr title sdrBundleStored
vector 27 dtnsim.node[14].dtn sdrBytesStored:vector ETV
attr interpolationmode none
attr recordingmode vector
attr source sdrBytesStored
attr title sdrBytesStored
vector 28 dtnsim.node[15].dtn sdrBundleStored:vector ETV
attr interpolationmode none
attr recordingmode vector
attr source sdrBundleStored
attr title sdrBundleStored
vector 29 dtnsim.node[15].dtn sdrBytesStored:vector ETV
attr interpolationmode none
attr recordingmode vector
attr source sdrBytesStored
attr title sdrBytesStored
vector 30 dtnsim.node[16].dtn sdrBundleStored:vector ETV
attr interpolationmode none
attr recordingmode vector
attr source sdrBundleStored
attr title sdrBundleStored
vector 31 dtnsim.node[16].dtn sdrBytesStored:vector ETV
attr interpolationmode none
attr recordingmode vector
attr source sdrBytesStored
attr title sdrBytesStored
vector 32 dtnsim.node[17].dtn sdrBundleStored:vector ETV
attr interpolationmode none
attr recordingmode vector
attr source sdrBundleStored
attr title sdrBundleStored
vector 33 dtnsim.node[17].dtn sdrBytesStored:vector ETV
attr interpolationmode none
attr recordingmode vector
attr source sdrBytesStored
attr title sdrBytesStored
vector 34 dtnsim.node[18].dtn sdrBundleStored:vector ETV
attr interpolationmode none
attr recordingmode vector
attr source sdrBundleStored
attr title sdrBundleStored
vector 35 dtnsim.node[18].dtn sdrBytesStored:vector ETV
attr interpolationmode none
attr recordingmode vector
attr source sdrBytesStored
attr title sdrBytesStored
vector 36 dtnsim.node[19].dtn sdrBundleStored:vector ETV
attr interpolationmode none
attr recordingmode vector
attr source sdrBundleStored
attr title sdrBundleStored
vector 37 dtnsim.node[19].dtn sdrBytesStored:vector ETV
attr interpolationmode none
attr recordingmode vector
attr source sdrBytesStored
attr title sdrBytesStored
vector 38 dtnsim.node[20].dtn sdrBundleStored:vector ETV
attr interpolationmode none
attr recordingmode vector
attr source sdrBundleStored
attr title sdrBundleStored
vector 39 dtnsim.node[20].dtn sdrBytesStored:vector ETV
attr interpolationmode none
attr recordingmode vector
attr source sdrBytesStored
attr title sdrBytesStored
vector 40 dtnsim.node[21].dtn sdrBundleStored:vector ETV
attr interpolationmode none
attr recordingmode vector
attr source sdrBundleStored
attr title sdrBundleStored
vector 41 dtnsim.node[21].dtn sdrBytesStored:vector ETV
attr interpolationmode none
attr recordingmode vector
attr source sdrBytesStored
attr title sdrBytesStored
vector 42 dtnsim.node[22].dtn sdrBundleStored:vector ETV
attr interpolationmode none
attr recordingmode vector
attr source sdrBundleStored
attr title sdrBundleStored
vector 43 dtnsim.node[22].dtn sdrBytesStored:vector ETV
attr interpolationmode none
attr recordingmode vector
attr source sdrBytesStored
attr title sdrBytesStored
vector 44 dtnsim.node[23].dtn sdrBundleStored:vector ETV
attr interpolationmode none
attr recordingmode vector
attr source sdrBundleStored
attr title sdrBundleStored
vector 45 dtnsim.node[23].dtn sdrBytesStored:vector ETV
attr interpolationmode none
attr recordingmode vector
attr source sdrBytesStored
attr title sdrBytesStored
vector 46 dtnsim.node[24].dtn sdrBundleStored:vector ETV
attr interpolationmode none
attr recordingmode vector
attr source sdrBundleStored
attr title sdrBundleStored
vector 47 dtnsim.node[24].dtn sdrBytesStored:vector ETV
attr interpolationmode none
attr recordingmode vector
attr source sdrBytesStored
attr title sdrBytesStored
vector 48 dtnsim.node[25].dtn sdrBundleStored:vector ETV
attr interpolationmode none
attr recordingmode vector
attr source sdrBundleStored
attr title sdrBundleStored
vector 49 dtnsim.node[25].dtn sdrBytesStored:vector ETV
attr interpolationmode none
attr recordingmode vector
attr source sdrBytesStored
attr title sdrBytesStored
vector 50 dtnsim.node[26].dtn sdrBundleStored:vector ETV
attr interpolationmode none
attr recordingmode vector
attr source sdrBundleStored
attr title sdrBundleStored
vector 51 dtnsim.node[26].dtn sdrBytesStored:vector ETV
attr interpolationmode none
attr recordingmode vector
attr source sdrBytesStored
attr title sdrBytesStored
vector 52 dtnsim.node[27].dtn sdrBundleStored:vector ETV
attr interpolationmode none
attr recordingmode vector
attr source sdrBundleStored
attr title sdrBundleStored
vector 53 dtnsim.node[27].dtn sdrBytesStored:vector ETV
attr interpolationmode none
attr recordingmode vector
attr source sdrBytesStored
attr title sdrBytesStored
vector 54 dtnsim.node[28].dtn sdrBundleStored:vector ETV
attr interpolationmode none
attr recordingmode vector
attr source sdrBundleStored
attr title sdrBundleStored
vector 55 dtnsim.node[28].dtn sdrBytesStored:vector ETV
attr interpolationmode none
attr recordingmode vector
attr source sdrBytesStored
attr title sdrBytesStored
vector 56 dtnsim.node[29].dtn sdrBundleStored:vector ETV
attr interpolationmode none
attr recordingmode vector
attr source sdrBundleStored
attr title sdrBundleStored
vector 57 dtnsim.node[29].dtn sdrBytesStored:vector ETV
attr interpolationmode none
attr recordingmode vector
attr source sdrBytesStored
attr title sdrBytesStored
vector 58 dtnsim.node[30].dtn sdrBundleStored:vector ETV
attr interpolationmode none
attr recordingmode vector
attr source sdrBundleStored
attr title sdrBundleStored
vector 59 dtnsim.node[30].dtn sdrBytesStored:vector ETV
attr interpolationmode none
attr recordingmode vector
attr source sdrBytesStored
attr title sdrBytesStored
vector 60 dtnsim.node[31].dtn sdrBundleStored:vector ETV
attr interpolationmode none
attr recordingmode vector
attr source sdrBundleStored
attr title sdrBundleStored
vector 61 dtnsim.node[31].dtn sdrBytesStored:vector ETV
attr interpolationmode none
attr recordingmode vector
attr source sdrBytesStored
attr title sdrBytesStored
vector 62 dtnsim.node[32].dtn sdrBundleStored:vector ETV
attr interpolationmode none
attr recordingmode vector
attr source sdrBundleStored
attr title sdrBundleStored
vector 63 dtnsim.node[32].dtn sdrBytesStored:vector ETV
attr interpolationmode none
attr recordingmode vector
attr source sdrBytesStored
attr title sdrBytesStored
vector 64 dtnsim.node[33].dtn sdrBundleStored:vector ETV
attr interpolationmode none
attr recordingmode vector
attr source sdrBundleStored
attr title sdrBundleStored
vector 65 dtnsim.node[33].dtn sdrBytesStored:vector ETV
attr interpolationmode none
attr recordingmode vector
attr source sdrBytesStored
attr title sdrBytesStored
vector 66 dtnsim.node[34].dtn sdrBundleStored:vector ETV
attr interpolationmode none
attr recordingmode vector
attr source sdrBundleStored
attr title sdrBundleStored
vector 67 dtnsim.node[34].dtn sdrBytesStored:vector ETV
attr interpolationmode none
attr recordingmode vector
attr source sdrBytesStored
attr title sdrBytesStored
vector 68 dtnsim.node[35].dtn sdrBundleStored:vector ETV
attr interpolationmode none
attr recordingmode vector
attr source sdrBundleStored
attr title sdrBundleStored
vector 69 dtnsim.node[35].dtn sdrBytesStored:vector ETV
attr interpolationmode none
attr recordingmode vector
attr source sdrBytesStored
attr title sdrBytesStored
vector 70 dtnsim.node[36].dtn sdrBundleStored:vector ETV
attr interpolationmode none
attr recordingmode vector
attr source sdrBundleStored
attr title sdrBundleStored
vector 71 dtnsim.node[36].dtn sdrBytesStored:vector ETV
attr interpolationmode none
attr recordingmode vector
attr source sdrBytesStored
attr title sdrBytesStored
vector 72 dtnsim.node[37].dtn sdrBundleStored:vector ETV
attr interpolationmode none
attr recordingmode vector
attr source sdrBundleStored
attr title sdrBundleStored
vector 73 dtnsim.node[37].dtn sdrBytesStored:vector ETV
attr interpolationmode none
attr recordingmode vector
attr source sdrBytesStored
attr title sdrBytesStored
vector 74 dtnsim.node[38].dtn sdrBundleStored:vector ETV
attr interpolationmode none
attr recordingmode vector
attr source sdrBundleStored
attr title sdrBundleStored
vector 75 dtnsim.node[38].dtn sdrBytesStored:vector ETV
attr interpolationmode none
attr recordingmode vector
attr source sdrBytesStored
attr title sdrBytesStored
vector 76 dtnsim.node[39].dtn sdrBundleStored:vector ETV
attr interpolationmode none
attr recordingmode vector
attr source sdrBundleStored
attr title sdrBundleStored
vector 77 dtnsim.node[39].dtn sdrBytesStored:vector ETV
attr interpolationmode none
attr recordingmode vector
attr source sdrBytesStored
attr title sdrBytesStored
vector 78 dtnsim.node[40].dtn sdrBundleStored:vector ETV
attr interpolationmode none
attr recordingmode vector
attr source sdrBundleStored
attr title sdrBundleStored
vector 79 dtnsim.node[40].dtn sdrBytesStored:vector ETV
attr interpolationmode none
attr recordingmode vector
attr source sdrBytesStored
attr title sdrBytesStored
vector 80 dtnsim.node[41].dtn sdrBundleStored:vector ETV
attr interpolationmode none
attr recordingmode vector
attr source sdrBundleStored
attr title sdrBundleStored
vector 81 dtnsim.node[41].dtn sdrBytesStored:vector ETV
attr interpolationmode none
attr recordingmode vector
attr source sdrBytesStored
attr title sdrBytesStored
vector 82 dtnsim.node[42].dtn sdrBundleStored:vector ETV
attr interpolationmode none
attr recordingmode vector
attr source sdrBundleStored
attr title sdrBundleStored
vector 83 dtnsim.node[42].dtn sdrBytesStored:vector ETV
attr interpolationmode none
attr recordingmode vector
attr source sdrBytesStored
attr title sdrBytesStored
vector 84 dtnsim.node[43].dtn sdrBundleStored:vector ETV
attr interpolationmode none
attr recordingmode vector
attr source sdrBundleStored
attr title sdrBundleStored
vector 85 dtnsim.node[43].dtn sdrBytesStored:vector ETV
attr interpolationmode none
attr recordingmode vector
attr source sdrBytesStored
attr title sdrBytesStored
vector 86 dtnsim.node[44].dtn sdrBundleStored:vector ETV
attr interpolationmode none
attr recordingmode vector
attr source sdrBundleStored
attr title sdrBundleStored
vector 87 dtnsim.node[44].dtn sdrBytesStored:vector ETV
attr interpolationmode none
attr recordingmode vector
attr source sdrBytesStored
attr title sdrBytesStored
vector 88 dtnsim.node[45].dtn sdrBundleStored:vector ETV
attr interpolationmode none
attr recordingmode vector
attr source sdrBundleStored
attr title sdrBundleStored
vector 89 dtnsim.node[45].dtn sdrBytesStored:vector ETV
attr interpolationmode none
attr recordingmode vector
attr source sdrBytesStored
attr title sdrBytesStored
vector 90 dtnsim.node[46].dtn sdrBundleStored:vector ETV
attr interpolationmode none
attr recordingmode vector
attr source sdrBundleStored
attr title sdrBundleStored
vector 91 dtnsim.node[46].dtn sdrBytesStored:vector ETV
attr interpolationmode none
attr recordingmode vector
attr source sdrBytesStored
attr title sdrBytesStored
vector 92 dtnsim.node[47].dtn sdrBundleStored:vector ETV
attr interpolationmode none
attr recordingmode vector
attr source sdrBundleStored
attr title sdrBundleStored
vector 93 dtnsim.node[47].dtn sdrBytesStored:vector ETV
attr interpolationmode none
attr recordingmode vector
attr source sdrBytesStored
attr title sdrBytesStored
vector 94 dtnsim.node[48].dtn sdrBundleStored:vector ETV
attr interpolationmode none
attr recordingmode vector
attr source sdrBundleStored
attr title sdrBundleStored
vector 95 dtnsim.node[48].dtn sdrBytesStored:vector ETV
attr interpolationmode none
attr recordingmode vector
attr source sdrBytesStored
attr title sdrBytesStored
vector 96 dtnsim.node[7].dtn routeCgrDijkstraCalls:vector ETV
attr interpolationmode none
attr recordingmode vector
attr source routeCgrDijkstraCalls
attr title routeCgrDijkstraCalls
vector 97 dtnsim.node[7].dtn routeCgrDijkstraLoops:vector ETV
attr interpolationmode none
attr recordingmode vector
attr source routeCgrDijkstraLoops
attr title routeCgrDijkstraLoops
vector 98 dtnsim.node[7].dtn routeCgrRouteTableEntriesCreated:vector ETV
attr interpolationmode none
attr recordingmode vector
attr source routeCgrRouteTableEntriesCreated
attr title routeCgrRouteTableEntriesCreated
vector 99 dtnsim.node[7].dtn routeCgrRouteTableEntriesExplored:vector ETV
attr interpolationmode none
attr recordingmode vector
attr source routeCgrRouteTableEntriesExplored
attr title routeCgrRouteTableEntriesExplored
vector 100 dtnsim.node[8].dtn routeCgrDijkstraCalls:vector ETV
attr interpolationmode none
attr recordingmode vector
attr source routeCgrDijkstraCalls
attr title routeCgrDijkstraCalls
vector 101 dtnsim.node[8].dtn routeCgrDijkstraLoops:vector ETV
attr interpolationmode none
attr recordingmode vector
attr source routeCgrDijkstraLoops
attr title routeCgrDijkstraLoops
vector 102 dtnsim.node[8].dtn routeCgrRouteTableEntriesCreated:vector ETV
attr interpolationmode none
attr recordingmode vector
attr source routeCgrRouteTableEntriesCreated
attr title routeCgrRouteTableEntriesCreated
vector 103 dtnsim.node[8].dtn routeCgrRouteTableEntriesExplored:vector ETV
attr interpolationmode none
attr recordingmode vector
attr source routeCgrRouteTableEntriesExplored
attr title routeCgrRouteTableEntriesExplored
vector 104 dtnsim.node[9].dtn routeCgrDijkstraCalls:vector ETV
attr interpolationmode none
attr recordingmode vector
attr source routeCgrDijkstraCalls
attr title routeCgrDijkstraCalls
vector 105 dtnsim.node[9].dtn routeCgrDijkstraLoops:vector ETV
attr interpolationmode none
attr recordingmode vector
attr source routeCgrDijkstraLoops
attr title routeCgrDijkstraLoops
vector 106 dtnsim.node[9].dtn routeCgrRouteTableEntriesCreated:vector ETV
attr interpolationmode none
attr recordingmode vector
attr source routeCgrRouteTableEntriesCreated
attr title routeCgrRouteTableEntriesCreated
vector 107 dtnsim.node[9].dtn routeCgrRouteTableEntriesExplored:vector ETV
attr interpolationmode none
attr recordingmode vector
attr source routeCgrRouteTableEntriesExplored
attr title routeCgrRouteTableEntriesExplored
vector 108 dtnsim.node[10].dtn routeCgrDijkstraCalls:vector ETV
attr interpolationmode none
attr recordingmode vector
attr source routeCgrDijkstraCalls
attr title routeCgrDijkstraCalls
vector 109 dtnsim.node[10].dtn routeCgrDijkstraLoops:vector ETV
attr interpolationmode none
attr recordingmode vector
attr source routeCgrDijkstraLoops
attr title routeCgrDijkstraLoops
vector 110 dtnsim.node[10].dtn routeCgrRouteTableEntriesCreated:vector ETV
attr interpolationmode none
attr recordingmode vector
attr source routeCgrRouteTableEntriesCreated
attr title routeCgrRouteTableEntriesCreated
vector 111 dtnsim.node[10].dtn routeCgrRouteTableEntriesExplored:vector ETV
attr interpolationmode none
attr recordingmode vector
attr source routeCgrRouteTableEntriesExplored
attr title routeCgrRouteTableEntriesExplored
vector 112 dtnsim.node[11].dtn routeCgrDijkstraCalls:vector ETV
attr interpolationmode none
attr recordingmode vector
attr source routeCgrDijkstraCalls
attr title routeCgrDijkstraCalls
vector 113 dtnsim.node[11].dtn routeCgrDijkstraLoops:vector ETV
attr interpolationmode none
attr recordingmode vector
attr source routeCgrDijkstraLoops
attr title routeCgrDijkstraLoops
vector 114 dtnsim.node[11].dtn routeCgrRouteTableEntriesCreated:vector ETV
attr interpolationmode none
attr recordingmode vector
attr source routeCgrRouteTableEntriesCreated
attr title routeCgrRouteTableEntriesCreated
vector 115 dtnsim.node[11].dtn routeCgrRouteTableEntriesExplored:vector ETV
attr interpolationmode none
attr recordingmode vector
attr source routeCgrRouteTableEntriesExplored
attr title routeCgrRouteTableEntriesExplored
vector 116 dtnsim.node[12].dtn routeCgrDijkstraCalls:vector ETV
attr interpolationmode none
attr recordingmode vector
attr source routeCgrDijkstraCalls
attr title routeCgrDijkstraCalls
vector 117 dtnsim.node[12].dtn routeCgrDijkstraLoops:vector ETV
attr interpolationmode none
attr recordingmode vector
attr source routeCgrDijkstraLoops
attr title routeCgrDijkstraLoops
vector 118 dtnsim.node[12].dtn routeCgrRouteTableEntriesCreated:vector ETV
attr interpolationmode none
attr recordingmode vector
attr source routeCgrRouteTableEntriesCreated
attr title routeCgrRouteTableEntriesCreated
vector 119 dtnsim.node[12].dtn routeCgrRouteTableEntriesExplored:vector ETV
attr interpolationmode none
attr recordingmode vector
attr source routeCgrRouteTableEntriesExplored
attr title routeCgrRouteTableEntriesExplored
vector 120 dtnsim.node[13].dtn routeCgrDijkstraCalls:vector ETV
attr interpolationmode none
attr recordingmode vector
attr source routeCgrDijkstraCalls
attr title routeCgrDijkstraCalls
vector 121 dtnsim.node[13].dtn routeCgrDijkstraLoops:vector ETV
attr interpolationmode none
attr recordingmode vector
attr source routeCgrDijkstraLoops
attr title routeCgrDijkstraLoops
vector 122 dtnsim.node[13].dtn routeCgrRouteTableEntriesCreated:vector ETV
attr interpolationmode none
attr recordingmode vector
attr source routeCgrRouteTableEntriesCreated
attr title routeCgrRouteTableEntriesCreated
vector 123 dtnsim.node[13].dtn routeCgrRouteTableEntriesExplored:vector ETV
attr interpolationmode none
attr recordingmode vector
attr source routeCgrRouteTableEntriesExplored
attr title routeCgrRouteTableEntriesExplored
vector 124 dtnsim.node[14].dtn routeCgrDijkstraCalls:vector ETV
attr interpolationmode none
attr recordingmode vector
attr source routeCgrDijkstraCalls
attr title routeCgrDijkstraCalls
vector 125 dtnsim.node[14].dtn routeCgrDijkstraLoops:vector ETV
attr interpolationmode none
attr recordingmode vector
attr source routeCgrDijkstraLoops
attr title routeCgrDijkstraLoops
vector 126 dtnsim.node[14].dtn routeCgrRouteTableEntriesCreated:vector ETV
attr interpolationmode none
attr recordingmode vector
attr source routeCgrRouteTableEntriesCreated
attr title routeCgrRouteTableEntriesCreated
vector 127 dtnsim.node[14].dtn routeCgrRouteTableEntriesExplored:vector ETV
attr interpolationmode none
attr recordingmode vector
attr source routeCgrRouteTableEntriesExplored
attr title routeCgrRouteTableEntriesExplored
vector 128 dtnsim.node[15].dtn routeCgrDijkstraCalls:vector ETV
attr interpolationmode none
attr recordingmode vector
attr source routeCgrDijkstraCalls
attr title routeCgrDijkstraCalls
vector 129 dtnsim.node[15].dtn routeCgrDijkstraLoops:vector ETV
attr interpolationmode none
attr recordingmode vector
attr source routeCgrDijkstraLoops
attr title routeCgrDijkstraLoops
vector 130 dtnsim.node[15].dtn routeCgrRouteTableEntriesCreated:vector ETV
attr interpolationmode none
attr recordingmode vector
attr source routeCgrRouteTableEntriesCreated
attr title routeCgrRouteTableEntriesCreated
vector 131 dtnsim.node[15].dtn routeCgrRouteTableEntriesExplored:vector ETV
attr interpolationmode none
attr recordingmode vector
attr source routeCgrRouteTableEntriesExplored
attr title routeCgrRouteTableEntriesExplored
vector 132 dtnsim.node[16].dtn routeCgrDijkstraCalls:vector ETV
attr interpolationmode none
attr recordingmode vector
attr source routeCgrDijkstraCalls
attr title routeCgrDijkstraCalls
vector 133 dtnsim.node[16].dtn routeCgrDijkstraLoops:vector ETV
attr interpolationmode none
attr recordingmode vector
attr source routeCgrDijkstraLoops
attr title routeCgrDijkstraLoops
vector 134 dtnsim.node[16].dtn routeCgrRouteTableEntriesCreated:vector ETV
attr interpolationmode none
attr recordingmode vector
attr source routeCgrRouteTableEntriesCreated
attr title routeCgrRouteTableEntriesCreated
vector 135 dtnsim.node[16].dtn routeCgrRouteTableEntriesExplored:vector ETV
attr interpolationmode none
attr recordingmode vector
attr source routeCgrRouteTableEntriesExplored
attr title routeCgrRouteTableEntriesExplored
vector 136 dtnsim.node[17].dtn routeCgrDijkstraCalls:vector ETV
attr interpolationmode none
attr recordingmode vector
attr source routeCgrDijkstraCalls
attr title routeCgrDijkstraCalls
vector 137 dtnsim.node[17].dtn routeCgrDijkstraLoops:vector ETV
attr interpolationmode none
attr recordingmode vector
attr source routeCgrDijkstraLoops
attr title routeCgrDijkstraLoops
vector 138 dtnsim.node[17].dtn routeCgrRouteTableEntriesCreated:vector ETV
attr interpolationmode none
attr recordingmode vector
attr source routeCgrRouteTableEntriesCreated
attr title routeCgrRouteTableEntriesCreated
vector 139 dtnsim.node[17].dtn routeCgrRouteTableEntriesExplored:vector ETV
attr interpolationmode none
attr recordingmode vector
attr source routeCgrRouteTableEntriesExplored
attr title routeCgrRouteTableEntriesExplored
vector 140 dtnsim.node[18].dtn routeCgrDijkstraCalls:vector ETV
attr interpolationmode none
attr recordingmode vector
attr source routeCgrDijkstraCalls
attr title routeCgrDijkstraCalls
vector 141 dtnsim.node[18].dtn routeCgrDijkstraLoops:vector ETV
attr interpolationmode none
attr recordingmode vector
attr source routeCgrDijkstraLoops
attr title routeCgrDijkstraLoops
vector 142 dtnsim.node[18].dtn routeCgrRouteTableEntriesCreated:vector ETV
attr interpolationmode none
attr recordingmode vector
attr source routeCgrRouteTableEntriesCreated
attr title routeCgrRouteTableEntriesCreated
vector 143 dtnsim.node[18].dtn routeCgrRouteTableEntriesExplored:vector ETV
attr interpolationmode none
attr recordingmode vector
attr source routeCgrRouteTableEntriesExplored
attr title routeCgrRouteTableEntriesExplored
vector 144 dtnsim.node[19].dtn routeCgrDijkstraCalls:vector ETV
attr interpolationmode none
attr recordingmode vector
attr source routeCgrDijkstraCalls
attr title routeCgrDijkstraCalls
vector 145 dtnsim.node[19].dtn routeCgrDijkstraLoops:vector ETV
attr interpolationmode none
attr recordingmode vector
attr source routeCgrDijkstraLoops
attr title routeCgrDijkstraLoops
vector 146 dtnsim.node[19].dtn routeCgrRouteTableEntriesCreated:vector ETV
attr interpolationmode none
attr recordingmode vector
attr source routeCgrRouteTableEntriesCreated
attr title routeCgrRouteTableEntriesCreated
vector 147 dtnsim.node[19].dtn routeCgrRouteTableEntriesExplored:vector ETV
attr interpolationmode none
attr recordingmode vector
attr source routeCgrRouteTableEntriesExplored
attr title routeCgrRouteTableEntriesExplored
vector 148 dtnsim.node[20].dtn routeCgrDijkstraCalls:vector ETV
attr interpolationmode none
attr recordingmode vector
attr source routeCgrDijkstraCalls
attr title routeCgrDijkstraCalls
vector 149 dtnsim.node[20].dtn routeCgrDijkstraLoops:vector ETV
attr interpolationmode none
attr recordingmode vector
attr source routeCgrDijkstraLoops
attr title routeCgrDijkstraLoops
vector 150 dtnsim.node[20].dtn routeCgrRouteTableEntriesCreated:vector ETV
attr interpolationmode none
attr recordingmode vector
attr source routeCgrRouteTableEntriesCreated
attr title routeCgrRouteTableEntriesCreated
vector 151 dtnsim.node[20].dtn routeCgrRouteTableEntriesExplored:vector ETV
attr interpolationmode none
attr recordingmode vector
attr source routeCgrRouteTableEntriesExplored
attr title routeCgrRouteTableEntriesExplored
vector 152 dtnsim.node[21].dtn routeCgrDijkstraCalls:vector ETV
attr interpolationmode none
attr recordingmode vector
attr source routeCgrDijkstraCalls
attr title routeCgrDijkstraCalls
vector 153 dtnsim.node[21].dtn routeCgrDijkstraLoops:vector ETV
attr interpolationmode none
attr recordingmode vector
attr source routeCgrDijkstraLoops
attr title routeCgrDijkstraLoops
vector 154 dtnsim.node[21].dtn routeCgrRouteTableEntriesCreated:vector ETV
attr interpolationmode none
attr recordingmode vector
attr source routeCgrRouteTableEntriesCreated