file 3213 1680987750                                            
version 2
run General-0-20220203-20:22:43-404272
attr configname General
attr datetime 20220203-20:22:43
attr experiment General
attr inifile example1.ini
attr iterationvars ""
attr iterationvarsf ""
attr measurement ""
attr network src.dtnsim
attr processid 404272
attr repetition 0
attr replication #0
attr resultdir results
attr runnumber 0
attr seedset 0
config dtnsim.nodesNumber 5
config dtnsim.node[1..3].icon "\"satellite\""
config dtnsim.node[*].fault.enable false
config dtnsim.node[*].fault.faultSeed 0*10
config dtnsim.node[*].fault.meanTTF 20s
config dtnsim.node[*].fault.meanTTR 5s
config dtnsim.node[*].dtn.routing "\"uncertainUniboCgr\""
config dtnsim.node[*].dtn.routingType "\"routeListType:allPaths-initial+anchor,volumeAware:allContacts,extensionBlock:on,contactPlan:local\""
config dtnsim.node[*].dtn.printRoutingDebug true
config dtnsim.central.contactsFile "\"contactPlan/contactPlan.txt\""
config dtnsim.node[*].dtn.saveBundleMap true
config dtnsim.central.saveTopology true
config dtnsim.central.saveFlows true
config dtnsim.node[1].app.enable true
config dtnsim.node[1].app.returnToSender false
config dtnsim.node[1].app.bundlesNumber "\"1\""
config dtnsim.node[1].app.start "\"0\""
config dtnsim.node[1].app.destinationEid "\"2\""
config dtnsim.node[1].app.size "\"1000\""

vector 0 dtnsim.node[1].dtn sdrBundleStored:vector ETV
attr interpolationmode none
attr source sdrBundleStored
attr title "sdrBundleStored, vector"
0	2929 37 0 29 0 120 4 0 1 1 1
vector 1 dtnsim.node[1].dtn sdrBytesStored:vector ETV
attr interpolationmode none
attr source sdrBytesStored
attr title "sdrBytesStored, vector"
1	2966 40 0 29 0 120 4 0 1000 1000 1000000
vector 2 dtnsim.node[2].dtn sdrBundleStored:vector ETV
attr interpolationmode none
attr source sdrBundleStored
attr title "sdrBundleStored, vector"
2	3006 19 0 29 0 120 2 0 0 0 0
vector 3 dtnsim.node[2].dtn sdrBytesStored:vector ETV
attr interpolationmode none
attr source sdrBytesStored
attr title "sdrBytesStored, vector"
3	3025 19 0 29 0 120 2 0 0 0 0
vector 4 dtnsim.node[3].dtn sdrBundleStored:vector ETV
attr interpolationmode none
attr source sdrBundleStored
attr title "sdrBundleStored, vector"
4	3044 19 0 29 0 120 2 0 0 0 0
vector 5 dtnsim.node[3].dtn sdrBytesStored:vector ETV
attr interpolationmode none
attr source sdrBytesStored
attr title "sdrBytesStored, vector"
5	3063 19 0 29 0 120 2 0 0 0 0
vector 6 dtnsim.node[4].dtn sdrBundleStored:vector ETV
attr interpolationmode none
attr source sdrBundleStored
attr title "sdrBundleStored, vector"
6	3082 39 0 29 0 120 4 0 1 1 1
vector 7 dtnsim.node[4].dtn sdrBytesStored:vector ETV
attr interpolationmode none
attr source sdrBytesStored
attr title "sdrBytesStored, vector"
7	3121 42 0 29 0 120 4 0 1000 1000 1000000
vector 8 dtnsim.node[5].dtn sdrBundleStored:vector ETV
attr interpolationmode none
attr source sdrBundleStored
attr title "sdrBundleStored, vector"
8	3163 19 0 29 0 120 2 0 0 0 0
vector 9 dtnsim.node[5].dtn sdrBytesStored:vector ETV
attr interpolationmode none
attr source sdrBytesStored
attr title "sdrBytesStored, vector"
9	3182 19 0 29 0 120 2 0 0 0 0
vector 10 dtnsim.node[2].dtn dtnBundleSentToAppHopCount:vector ETV
attr interpolationmode none
attr source dtnBundleSentToAppHopCount
attr title "dtnBundleSentToAppHopCount, vector"
10	3201 12 21 21 25 25 1 2 2 2 4
