file 3009 1680987750                                            
version 2
run General-0-20211215-17:33:24-7844
attr configname General
attr datetime 20211215-17:33:24
attr experiment General
attr inifile example1.ini
attr iterationvars ""
attr iterationvarsf ""
attr measurement ""
attr network src.dtnsim
attr processid 7844
attr repetition 0
attr replication #0
attr resultdir results
attr runnumber 0
attr seedset 0
config dtnsim.nodesNumber 3
config dtnsim.node[1..3].icon "\"satellite\""
config dtnsim.node[*].fault.enable false
config dtnsim.node[*].fault.faultSeed 0*10
config dtnsim.node[*].fault.meanTTF 20s
config dtnsim.node[*].fault.meanTTR 5s
config dtnsim.node[*].dtn.routing "\"uniboCgr\""
config dtnsim.node[*].dtn.routingType "\"routeListType:allPaths-initial+anchor,volumeAware:allContacts,extensionBlock:on,contactPlan:local\""
config dtnsim.node[*].dtn.printRoutingDebug true
config dtnsim.central.contactsFile "\"contactPlan/contactPlan.txt\""
config dtnsim.node[*].dtn.saveBundleMap true
config dtnsim.central.saveTopology true
config dtnsim.central.saveFlows true
config dtnsim.node[1].app.enable true
config dtnsim.node[1].app.returnToSender false
config dtnsim.node[1].app.bundlesNumber "\"1,1,1\""
config dtnsim.node[1].app.start "\"85,95,105\""
config dtnsim.node[1].app.destinationEid "\"3,3,3\""
config dtnsim.node[1].app.size "\"1000,1000,1000\""
config dtnsim.node[2].app.enable true
config dtnsim.node[2].app.returnToSender false
config dtnsim.node[2].app.bundlesNumber "\"1,1,1\""
config dtnsim.node[2].app.start "\"25,35,65\""
config dtnsim.node[2].app.destinationEid "\"3,3,3\""
config dtnsim.node[2].app.size "\"1000,1000,1000\""

vector 0 dtnsim.node[1].dtn sdrBundleStored:vector ETV
attr interpolationmode none
attr source sdrBundleStored
attr title "sdrBundleStored, vector"
0	2638 70 0 73 0 120 7 0 1 2 2
vector 1 dtnsim.node[1].dtn sdrBytesStored:vector ETV
attr interpolationmode none
attr source sdrBytesStored
attr title "sdrBytesStored, vector"
1	2708 76 0 73 0 120 7 0 1000 2000 2000000
vector 2 dtnsim.node[2].dtn sdrBundleStored:vector ETV
attr interpolationmode none
attr source sdrBundleStored
attr title "sdrBundleStored, vector"
2	2784 79 0 73 0 120 8 0 1 6 6
vector 3 dtnsim.node[2].dtn sdrBytesStored:vector ETV
attr interpolationmode none
attr source sdrBytesStored
attr title "sdrBytesStored, vector"
3	2863 97 0 73 0 120 8 0 1000 6000 6000000
vector 4 dtnsim.node[3].dtn sdrBundleStored:vector ETV
attr interpolationmode none
attr source sdrBundleStored
attr title "sdrBundleStored, vector"
4	2960 19 0 73 0 120 2 0 0 0 0
vector 5 dtnsim.node[3].dtn sdrBytesStored:vector ETV
attr interpolationmode none
attr source sdrBytesStored
attr title "sdrBytesStored, vector"
5	2979 19 0 73 0 120 2 0 0 0 0
vector 6 dtnsim.node[3].dtn dtnBundleSentToAppHopCount:vector ETV
attr interpolationmode none
attr source dtnBundleSentToAppHopCount
attr title "dtnBundleSentToAppHopCount, vector"
6	2998 11 27 27 40 40 1 1 1 1 1
